# vtk DataFile Version 3.0
STAPpp Q4 result
ASCII
DATASET UNSTRUCTURED_GRID
POINTS 9 double
0.000000000000e+00 0.000000000000e+00 0.000000000000e+00
5.000000000000e-01 0.000000000000e+00 0.000000000000e+00
1.000000000000e+00 0.000000000000e+00 0.000000000000e+00
1.000000000000e-01 5.000000000000e-01 0.000000000000e+00
6.000000000000e-01 5.000000000000e-01 0.000000000000e+00
1.100000000000e+00 5.000000000000e-01 0.000000000000e+00
2.000000000000e-01 1.000000000000e+00 0.000000000000e+00
7.000000000000e-01 1.000000000000e+00 0.000000000000e+00
1.200000000000e+00 1.000000000000e+00 0.000000000000e+00
CELLS 4 20
4 0 1 4 3
4 1 2 5 4
4 3 4 7 6
4 4 5 8 7
CELL_TYPES 4
9
9
9
9
POINT_DATA 9
VECTORS displacement double
0.000000000000e+00 0.000000000000e+00 0.000000000000e+00
0.000000000000e+00 0.000000000000e+00 0.000000000000e+00
0.000000000000e+00 0.000000000000e+00 0.000000000000e+00
1.250000000000e-03 0.000000000000e+00 0.000000000000e+00
1.250000000000e-03 0.000000000000e+00 0.000000000000e+00
1.250000000000e-03 0.000000000000e+00 0.000000000000e+00
2.500000000000e-03 0.000000000000e+00 0.000000000000e+00
2.500000000000e-03 0.000000000000e+00 0.000000000000e+00
2.500000000000e-03 0.000000000000e+00 0.000000000000e+00
SCALARS displacement_magnitude double 1
LOOKUP_TABLE default
0.000000000000e+00
0.000000000000e+00
0.000000000000e+00
1.250000000000e-03
1.250000000000e-03
1.250000000000e-03
2.500000000000e-03
2.500000000000e-03
2.500000000000e-03
CELL_DATA 4
SCALARS sigma_x double 1
LOOKUP_TABLE default
2.474874000000e-16
-2.312965500000e-16
-4.302130000000e-16
8.095394000000e-16
SCALARS sigma_y double 1
LOOKUP_TABLE default
6.187170000000e-17
-5.782415000000e-17
-1.075530500000e-16
2.023843500000e-16
SCALARS tau_xy double 1
LOOKUP_TABLE default
1.000000000000e+00
1.000000000000e+00
1.000000000000e+00
1.000000000000e+00
SCALARS von_mises_plane_stress double 1
LOOKUP_TABLE default
1.732050807569e+00
1.732050807569e+00
1.732050807569e+00
1.732050807569e+00
