# vtk DataFile Version 3.0
STAPpp Q4 result
ASCII
DATASET UNSTRUCTURED_GRID
POINTS 297 double
0.000000000000e+00 0.000000000000e+00 0.000000000000e+00
1.156085900000e-01 -4.450170000000e-03 0.000000000000e+00
2.322253600000e-01 -9.069990000000e-03 0.000000000000e+00
3.491175600000e-01 -1.549674000000e-02 0.000000000000e+00
4.662236000000e-01 -2.381367000000e-02 0.000000000000e+00
5.835721000000e-01 -3.405630000000e-02 0.000000000000e+00
7.011822000000e-01 -4.617780000000e-02 0.000000000000e+00
8.190650000000e-01 -6.011460000000e-02 0.000000000000e+00
9.372250000000e-01 -7.579770000000e-02 0.000000000000e+00
1.055663400000e+00 -9.315720000000e-02 0.000000000000e+00
1.174380800000e+00 -1.121223000000e-01 0.000000000000e+00
1.293377800000e+00 -1.326234000000e-01 0.000000000000e+00
1.412653800000e+00 -1.545903000000e-01 0.000000000000e+00
1.532209100000e+00 -1.779534000000e-01 0.000000000000e+00
1.652043700000e+00 -2.026425000000e-01 0.000000000000e+00
1.772157300000e+00 -2.285883000000e-01 0.000000000000e+00
1.892550500000e+00 -2.557206000000e-01 0.000000000000e+00
2.013222700000e+00 -2.839701000000e-01 0.000000000000e+00
2.134173900000e+00 -3.132660000000e-01 0.000000000000e+00
2.255404700000e+00 -3.435390000000e-01 0.000000000000e+00
2.376914500000e+00 -3.747210000000e-01 0.000000000000e+00
2.498703600000e+00 -4.067400000000e-01 0.000000000000e+00
2.620771700000e+00 -4.395270000000e-01 0.000000000000e+00
2.743119400000e+00 -4.730100000000e-01 0.000000000000e+00
2.865746100000e+00 -5.071230000000e-01 0.000000000000e+00
2.988652100000e+00 -5.417940000000e-01 0.000000000000e+00
3.111836800000e+00 -5.769510000000e-01 0.000000000000e+00
3.235298400000e+00 -6.125280000000e-01 0.000000000000e+00
3.359031800000e+00 -6.484500000000e-01 0.000000000000e+00
3.483024100000e+00 -6.846540000000e-01 0.000000000000e+00
3.607249800000e+00 -7.211040000000e-01 0.000000000000e+00
3.731678300000e+00 -7.578210000000e-01 0.000000000000e+00
3.856411900000e+00 -7.950810000000e-01 0.000000000000e+00
0.000000000000e+00 1.250000000000e-01 0.000000000000e+00
1.189265300000e-01 1.224520190000e-01 0.000000000000e+00
2.374356700000e-01 1.177155500000e-01 0.000000000000e+00
3.562221600000e-01 1.112724200000e-01 0.000000000000e+00
4.752455600000e-01 1.028950700000e-01 0.000000000000e+00
5.944864000000e-01 9.259310000000e-02 0.000000000000e+00
7.139376000000e-01 8.041070000000e-02 0.000000000000e+00
8.335982000000e-01 6.641270000000e-02 0.000000000000e+00
9.534679000000e-01 5.066810000000e-02 0.000000000000e+00
1.073547000000e+00 3.324770000000e-02 0.000000000000e+00
1.193835200000e+00 1.422140000000e-02 0.000000000000e+00
1.314333100000e+00 -6.340600000000e-03 0.000000000000e+00
1.435040100000e+00 -2.836870000000e-02 0.000000000000e+00
1.555956500000e+00 -5.179270000000e-02 0.000000000000e+00
1.677082600000e+00 -7.654300000000e-02 0.000000000000e+00
1.798417800000e+00 -1.025500000000e-01 0.000000000000e+00
1.919962400000e+00 -1.297435000000e-01 0.000000000000e+00
2.041716700000e+00 -1.580539000000e-01 0.000000000000e+00
2.163680100000e+00 -1.874110000000e-01 0.000000000000e+00
2.285853200000e+00 -2.177470000000e-01 0.000000000000e+00
2.408235400000e+00 -2.489890000000e-01 0.000000000000e+00
2.530827300000e+00 -2.810680000000e-01 0.000000000000e+00
2.653628600000e+00 -3.139150000000e-01 0.000000000000e+00
2.776639000000e+00 -3.474610000000e-01 0.000000000000e+00
2.899859100000e+00 -3.816340000000e-01 0.000000000000e+00
3.023288300000e+00 -4.163650000000e-01 0.000000000000e+00
3.146926900000e+00 -4.515850000000e-01 0.000000000000e+00
3.270774300000e+00 -4.872220000000e-01 0.000000000000e+00
3.394830800000e+00 -5.232070000000e-01 0.000000000000e+00
3.519097900000e+00 -5.594710000000e-01 0.000000000000e+00
3.643581300000e+00 -5.959750000000e-01 0.000000000000e+00
3.768296300000e+00 -6.327250000000e-01 0.000000000000e+00
3.893167900000e+00 -6.698200000000e-01 0.000000000000e+00
0.000000000000e+00 2.500000000000e-01 0.000000000000e+00
1.210911200000e-01 2.482794130000e-01 0.000000000000e+00
2.419688500000e-01 2.439793600000e-01 0.000000000000e+00
3.628118700000e-01 2.375433700000e-01 0.000000000000e+00
4.837949900000e-01 2.291310100000e-01 0.000000000000e+00
6.049344700000e-01 2.187796000000e-01 0.000000000000e+00
7.262255700000e-01 2.065489000000e-01 0.000000000000e+00
8.476621400000e-01 1.925047000000e-01 0.000000000000e+00
9.692407000000e-01 1.767157000000e-01 0.000000000000e+00
1.090959600000e+00 1.592512000000e-01 0.000000000000e+00
1.212818600000e+00 1.401811000000e-01 0.000000000000e+00
1.334817100000e+00 1.195756000000e-01 0.000000000000e+00
1.456955100000e+00 9.750370000000e-02 0.000000000000e+00
1.579232900000e+00 7.403620000000e-02 0.000000000000e+00
1.701650200000e+00 4.924210000000e-02 0.000000000000e+00
1.824207000000e+00 2.319160000000e-02 0.000000000000e+00
1.946903300000e+00 -4.045400000000e-03 0.000000000000e+00
2.069739400000e+00 -3.239930000000e-02 0.000000000000e+00
2.192715300000e+00 -6.179900000000e-02 0.000000000000e+00
2.315830400000e+00 -9.218000000000e-02 0.000000000000e+00
2.439085300000e+00 -1.234640000000e-01 0.000000000000e+00
2.562480000000e+00 -1.555880000000e-01 0.000000000000e+00
2.686013900000e+00 -1.884800000000e-01 0.000000000000e+00
2.809687600000e+00 -2.220680000000e-01 0.000000000000e+00
2.933501100000e+00 -2.562860000000e-01 0.000000000000e+00
3.057454100000e+00 -2.910620000000e-01 0.000000000000e+00
3.181547800000e+00 -3.263240000000e-01 0.000000000000e+00
3.305783700000e+00 -3.620090000000e-01 0.000000000000e+00
3.430166300000e+00 -3.980420000000e-01 0.000000000000e+00
3.554703100000e+00 -4.343600000000e-01 0.000000000000e+00
3.679404000000e+00 -4.709060000000e-01 0.000000000000e+00
3.804253400000e+00 -5.076200000000e-01 0.000000000000e+00
3.929156500000e+00 -5.443670000000e-01 0.000000000000e+00
0.000000000000e+00 3.750000000000e-01 0.000000000000e+00
1.230830210000e-01 3.736606650000e-01 0.000000000000e+00
2.460587500000e-01 3.696392400000e-01 0.000000000000e+00
3.690051600000e-01 3.633014400000e-01 0.000000000000e+00
4.919909600000e-01 3.548791500000e-01 0.000000000000e+00
6.150532000000e-01 3.444978000000e-01 0.000000000000e+00
7.381943100000e-01 3.322353000000e-01 0.000000000000e+00
8.614106000000e-01 3.181614000000e-01 0.000000000000e+00
9.846991600000e-01 3.023448000000e-01 0.000000000000e+00
1.108058430000e+00 2.848536000000e-01 0.000000000000e+00
1.231487810000e+00 2.657571000000e-01 0.000000000000e+00
1.354987030000e+00 2.451252000000e-01 0.000000000000e+00
1.478556090000e+00 2.230275000000e-01 0.000000000000e+00
1.602194930000e+00 1.995336000000e-01 0.000000000000e+00
1.725903550000e+00 1.747134000000e-01 0.000000000000e+00
1.849682010000e+00 1.486368000000e-01 0.000000000000e+00
1.973530250000e+00 1.213734000000e-01 0.000000000000e+00
2.097448300000e+00 9.299340000000e-02 0.000000000000e+00
2.221436130000e+00 6.356700000000e-02 0.000000000000e+00
2.345493800000e+00 3.316200000000e-02 0.000000000000e+00
2.469621100000e+00 1.851000000000e-03 0.000000000000e+00
2.593818600000e+00 -3.030000000000e-02 0.000000000000e+00
2.718085400000e+00 -6.321600000000e-02 0.000000000000e+00
2.842422400000e+00 -9.683400000000e-02 0.000000000000e+00
2.966829000000e+00 -1.310760000000e-01 0.000000000000e+00
3.091305800000e+00 -1.658790000000e-01 0.000000000000e+00
3.215853400000e+00 -2.011710000000e-01 0.000000000000e+00
3.340473600000e+00 -2.368830000000e-01 0.000000000000e+00
3.465170300000e+00 -2.729520000000e-01 0.000000000000e+00
3.589948900000e+00 -3.093030000000e-01 0.000000000000e+00
3.714811500000e+00 -3.458640000000e-01 0.000000000000e+00
3.839741300000e+00 -3.825150000000e-01 0.000000000000e+00
3.964689400000e+00 -4.190280000000e-01 0.000000000000e+00
0.000000000000e+00 5.000000000000e-01 0.000000000000e+00
1.250000000000e-01 4.987745480000e-01 0.000000000000e+00
2.500000000000e-01 4.948441700000e-01 0.000000000000e+00
3.750000000000e-01 4.885477400000e-01 0.000000000000e+00
5.000000000000e-01 4.801298900000e-01 0.000000000000e+00
6.250000000000e-01 4.697381000000e-01 0.000000000000e+00
7.500000000000e-01 4.574648000000e-01 0.000000000000e+00
8.750000000000e-01 4.433807000000e-01 0.000000000000e+00
1.000000000000e+00 4.275545000000e-01 0.000000000000e+00
1.125000000000e+00 4.100543000000e-01 0.000000000000e+00
1.250000000000e+00 3.909491000000e-01 0.000000000000e+00
1.375000000000e+00 3.703085000000e-01 0.000000000000e+00
1.500000000000e+00 3.482018000000e-01 0.000000000000e+00
1.625000000000e+00 3.246992000000e-01 0.000000000000e+00
1.750000000000e+00 2.998703000000e-01 0.000000000000e+00
1.875000000000e+00 2.737850000000e-01 0.000000000000e+00
2.000000000000e+00 2.465129000000e-01 0.000000000000e+00
2.125000000000e+00 2.181242000000e-01 0.000000000000e+00
2.250000000000e+00 1.886870000000e-01 0.000000000000e+00
2.375000000000e+00 1.582760000000e-01 0.000000000000e+00
2.500000000000e+00 1.269530000000e-01 0.000000000000e+00
2.625000000000e+00 9.479600000000e-02 0.000000000000e+00
2.750000000000e+00 6.187100000000e-02 0.000000000000e+00
2.875000000000e+00 2.824700000000e-02 0.000000000000e+00
3.000000000000e+00 -6.007000000000e-03 0.000000000000e+00
3.125000000000e+00 -4.081900000000e-02 0.000000000000e+00
3.250000000000e+00 -7.612000000000e-02 0.000000000000e+00
3.375000000000e+00 -1.118440000000e-01 0.000000000000e+00
3.500000000000e+00 -1.479220000000e-01 0.000000000000e+00
3.625000000000e+00 -1.842880000000e-01 0.000000000000e+00
3.750000000000e+00 -2.208490000000e-01 0.000000000000e+00
3.875000000000e+00 -2.574730000000e-01 0.000000000000e+00
4.000000000000e+00 -2.939050000000e-01 0.000000000000e+00
0.000000000000e+00 6.250000000000e-01 0.000000000000e+00
1.269169790000e-01 6.236606650000e-01 0.000000000000e+00
2.539412500000e-01 6.196392400000e-01 0.000000000000e+00
3.809948400000e-01 6.133014400000e-01 0.000000000000e+00
5.080090400000e-01 6.048791500000e-01 0.000000000000e+00
6.349468000000e-01 5.944978000000e-01 0.000000000000e+00
7.618056900000e-01 5.822353000000e-01 0.000000000000e+00
[...]
POINT_DATA 297
VECTORS displacement double
0.000000000000e+00 0.000000000000e+00 0.000000000000e+00
-3.130470000000e-03 -1.483390000000e-03 0.000000000000e+00
-5.924880000000e-03 -3.023330000000e-03 0.000000000000e+00
-8.627480000000e-03 -5.165580000000e-03 0.000000000000e+00
-1.125880000000e-02 -7.937890000000e-03 0.000000000000e+00
-1.380930000000e-02 -1.135210000000e-02 0.000000000000e+00
-1.627260000000e-02 -1.539260000000e-02 0.000000000000e+00
-1.864500000000e-02 -2.003820000000e-02 0.000000000000e+00
-2.092500000000e-02 -2.526590000000e-02 0.000000000000e+00
-2.311220000000e-02 -3.105240000000e-02 0.000000000000e+00
-2.520640000000e-02 -3.737410000000e-02 0.000000000000e+00
-2.720740000000e-02 -4.420780000000e-02 0.000000000000e+00
-2.911540000000e-02 -5.153010000000e-02 0.000000000000e+00
-3.093030000000e-02 -5.931780000000e-02 0.000000000000e+00
-3.265210000000e-02 -6.754750000000e-02 0.000000000000e+00
-3.428090000000e-02 -7.619610000000e-02 0.000000000000e+00
-3.581650000000e-02 -8.524020000000e-02 0.000000000000e+00
-3.725910000000e-02 -9.465670000000e-02 0.000000000000e+00
-3.860870000000e-02 -1.044220000000e-01 0.000000000000e+00
-3.986510000000e-02 -1.145130000000e-01 0.000000000000e+00
-4.102850000000e-02 -1.249070000000e-01 0.000000000000e+00
-4.209880000000e-02 -1.355800000000e-01 0.000000000000e+00
-4.307610000000e-02 -1.465090000000e-01 0.000000000000e+00
-4.396020000000e-02 -1.576700000000e-01 0.000000000000e+00
-4.475130000000e-02 -1.690410000000e-01 0.000000000000e+00
-4.544930000000e-02 -1.805980000000e-01 0.000000000000e+00
-4.605440000000e-02 -1.923170000000e-01 0.000000000000e+00
-4.656720000000e-02 -2.041760000000e-01 0.000000000000e+00
-4.698940000000e-02 -2.161500000000e-01 0.000000000000e+00
-4.732530000000e-02 -2.282180000000e-01 0.000000000000e+00
-4.758340000000e-02 -2.403680000000e-01 0.000000000000e+00
-4.777390000000e-02 -2.526070000000e-01 0.000000000000e+00
-4.786270000000e-02 -2.650270000000e-01 0.000000000000e+00
0.000000000000e+00 0.000000000000e+00 0.000000000000e+00
-2.024490000000e-03 -8.493270000000e-04 0.000000000000e+00
-4.188110000000e-03 -2.428150000000e-03 0.000000000000e+00
-6.259280000000e-03 -4.575860000000e-03 0.000000000000e+00
-8.251480000000e-03 -7.368310000000e-03 0.000000000000e+00
-1.017120000000e-02 -1.080230000000e-02 0.000000000000e+00
-1.202080000000e-02 -1.486310000000e-02 0.000000000000e+00
-1.380060000000e-02 -1.952910000000e-02 0.000000000000e+00
-1.551070000000e-02 -2.477730000000e-02 0.000000000000e+00
-1.715100000000e-02 -3.058410000000e-02 0.000000000000e+00
-1.872160000000e-02 -3.692620000000e-02 0.000000000000e+00
-2.022230000000e-02 -4.378020000000e-02 0.000000000000e+00
-2.165330000000e-02 -5.112290000000e-02 0.000000000000e+00
-2.301450000000e-02 -5.893090000000e-02 0.000000000000e+00
-2.430580000000e-02 -6.718100000000e-02 0.000000000000e+00
-2.552740000000e-02 -7.585000000000e-02 0.000000000000e+00
-2.667920000000e-02 -8.491450000000e-02 0.000000000000e+00
-2.776110000000e-02 -9.435130000000e-02 0.000000000000e+00
-2.877330000000e-02 -1.041370000000e-01 0.000000000000e+00
-2.971560000000e-02 -1.142490000000e-01 0.000000000000e+00
-3.058820000000e-02 -1.246630000000e-01 0.000000000000e+00
-3.139090000000e-02 -1.353560000000e-01 0.000000000000e+00
-3.212380000000e-02 -1.463050000000e-01 0.000000000000e+00
-3.278700000000e-02 -1.574870000000e-01 0.000000000000e+00
-3.338030000000e-02 -1.688780000000e-01 0.000000000000e+00
-3.390390000000e-02 -1.804550000000e-01 0.000000000000e+00
-3.435770000000e-02 -1.921950000000e-01 0.000000000000e+00
-3.474190000000e-02 -2.040740000000e-01 0.000000000000e+00
-3.505640000000e-02 -2.160690000000e-01 0.000000000000e+00
-3.530070000000e-02 -2.281570000000e-01 0.000000000000e+00
-3.547290000000e-02 -2.403250000000e-01 0.000000000000e+00
-3.556790000000e-02 -2.525750000000e-01 0.000000000000e+00
-3.561070000000e-02 -2.649400000000e-01 0.000000000000e+00
0.000000000000e+00 0.000000000000e+00 0.000000000000e+00
-1.302960000000e-03 -5.735290000000e-04 0.000000000000e+00
-2.677050000000e-03 -2.006880000000e-03 0.000000000000e+00
-4.062710000000e-03 -4.152210000000e-03 0.000000000000e+00
-5.401670000000e-03 -6.956330000000e-03 0.000000000000e+00
-6.688510000000e-03 -1.040680000000e-02 0.000000000000e+00
-7.924810000000e-03 -1.448370000000e-02 0.000000000000e+00
-9.112620000000e-03 -1.916510000000e-02 0.000000000000e+00
-1.025310000000e-02 -2.442810000000e-02 0.000000000000e+00
-1.134680000000e-02 -3.024960000000e-02 0.000000000000e+00
-1.239380000000e-02 -3.660630000000e-02 0.000000000000e+00
-1.339430000000e-02 -4.347480000000e-02 0.000000000000e+00
-1.434830000000e-02 -5.083210000000e-02 0.000000000000e+00
-1.525570000000e-02 -5.865460000000e-02 0.000000000000e+00
-1.611660000000e-02 -6.691930000000e-02 0.000000000000e+00
-1.693100000000e-02 -7.560280000000e-02 0.000000000000e+00
-1.769890000000e-02 -8.468180000000e-02 0.000000000000e+00
-1.842020000000e-02 -9.413310000000e-02 0.000000000000e+00
-1.909490000000e-02 -1.039330000000e-01 0.000000000000e+00
-1.972320000000e-02 -1.140600000000e-01 0.000000000000e+00
-2.030490000000e-02 -1.244880000000e-01 0.000000000000e+00
-2.084000000000e-02 -1.351960000000e-01 0.000000000000e+00
-2.132870000000e-02 -1.461600000000e-01 0.000000000000e+00
-2.177080000000e-02 -1.573560000000e-01 0.000000000000e+00
-2.216630000000e-02 -1.687620000000e-01 0.000000000000e+00
-2.251530000000e-02 -1.803540000000e-01 0.000000000000e+00
-2.281740000000e-02 -1.921080000000e-01 0.000000000000e+00
-2.307210000000e-02 -2.040030000000e-01 0.000000000000e+00
-2.327790000000e-02 -2.160140000000e-01 0.000000000000e+00
-2.343230000000e-02 -2.281200000000e-01 0.000000000000e+00
-2.353200000000e-02 -2.403020000000e-01 0.000000000000e+00
-2.358220000000e-02 -2.525400000000e-01 0.000000000000e+00
-2.361450000000e-02 -2.647890000000e-01 0.000000000000e+00
0.000000000000e+00 0.000000000000e+00 0.000000000000e+00
-6.389930000000e-04 -4.464450000000e-04 0.000000000000e+00
-1.313750000000e-03 -1.786920000000e-03 0.000000000000e+00
-1.998280000000e-03 -3.899520000000e-03 0.000000000000e+00
-2.669680000000e-03 -6.706950000000e-03 0.000000000000e+00
-3.315600000000e-03 -1.016740000000e-02 0.000000000000e+00
-3.935230000000e-03 -1.425490000000e-02 0.000000000000e+00
-4.529800000000e-03 -1.894620000000e-02 0.000000000000e+00
-5.100280000000e-03 -2.421840000000e-02 0.000000000000e+00
-5.647190000000e-03 -3.004880000000e-02 0.000000000000e+00
-6.170730000000e-03 -3.641430000000e-02 0.000000000000e+00
-6.670990000000e-03 -4.329160000000e-02 0.000000000000e+00
-7.147970000000e-03 -5.065750000000e-02 0.000000000000e+00
-7.601690000000e-03 -5.848880000000e-02 0.000000000000e+00
-8.032150000000e-03 -6.676220000000e-02 0.000000000000e+00
-8.439330000000e-03 -7.545440000000e-02 0.000000000000e+00
-8.823250000000e-03 -8.454220000000e-02 0.000000000000e+00
-9.183900000000e-03 -9.400220000000e-02 0.000000000000e+00
-9.521290000000e-03 -1.038110000000e-01 0.000000000000e+00
-9.835400000000e-03 -1.139460000000e-01 0.000000000000e+00
-1.012630000000e-02 -1.243830000000e-01 0.000000000000e+00
-1.039380000000e-02 -1.351000000000e-01 0.000000000000e+00
-1.063820000000e-02 -1.460720000000e-01 0.000000000000e+00
-1.085920000000e-02 -1.572780000000e-01 0.000000000000e+00
-1.105700000000e-02 -1.686920000000e-01 0.000000000000e+00
-1.123140000000e-02 -1.802930000000e-01 0.000000000000e+00
-1.138220000000e-02 -1.920570000000e-01 0.000000000000e+00
-1.150880000000e-02 -2.039610000000e-01 0.000000000000e+00
-1.160990000000e-02 -2.159840000000e-01 0.000000000000e+00
-1.168370000000e-02 -2.281010000000e-01 0.000000000000e+00
-1.172950000000e-02 -2.402880000000e-01 0.000000000000e+00
-1.175290000000e-02 -2.525050000000e-01 0.000000000000e+00
-1.177020000000e-02 -2.646760000000e-01 0.000000000000e+00
0.000000000000e+00 0.000000000000e+00 0.000000000000e+00
-3.598640000000e-17 -4.084840000000e-04 0.000000000000e+00
-7.392850000000e-17 -1.718610000000e-03 0.000000000000e+00
-1.143850000000e-16 -3.817420000000e-03 0.000000000000e+00
-1.569830000000e-16 -6.623370000000e-03 0.000000000000e+00
-2.010940000000e-16 -1.008730000000e-02 0.000000000000e+00
-2.503180000000e-16 -1.417840000000e-02 0.000000000000e+00
-2.954010000000e-16 -1.887310000000e-02 0.000000000000e+00
-3.374580000000e-16 -2.414850000000e-02 0.000000000000e+00
-3.803070000000e-16 -2.998190000000e-02 0.000000000000e+00
-4.258020000000e-16 -3.635030000000e-02 0.000000000000e+00
-4.583120000000e-16 -4.323050000000e-02 0.000000000000e+00
-4.961560000000e-16 -5.059940000000e-02 0.000000000000e+00
-5.355570000000e-16 -5.843360000000e-02 0.000000000000e+00
-5.669110000000e-16 -6.670990000000e-02 0.000000000000e+00
-6.059890000000e-16 -7.540500000000e-02 0.000000000000e+00
-6.460660000000e-16 -8.449570000000e-02 0.000000000000e+00
-7.089480000000e-16 -9.395860000000e-02 0.000000000000e+00
-7.826780000000e-16 -1.037710000000e-01 0.000000000000e+00
-8.446800000000e-16 -1.139080000000e-01 0.000000000000e+00
-9.410650000000e-16 -1.243490000000e-01 0.000000000000e+00
-1.021150000000e-15 -1.350680000000e-01 0.000000000000e+00
-1.045390000000e-15 -1.460430000000e-01 0.000000000000e+00
-1.060290000000e-15 -1.572510000000e-01 0.000000000000e+00
-1.086370000000e-15 -1.686690000000e-01 0.000000000000e+00
-1.137800000000e-15 -1.802730000000e-01 0.000000000000e+00
-1.185100000000e-15 -1.920400000000e-01 0.000000000000e+00
-1.207290000000e-15 -2.039480000000e-01 0.000000000000e+00
-1.232850000000e-15 -2.159740000000e-01 0.000000000000e+00
-1.264190000000e-15 -2.280960000000e-01 0.000000000000e+00
-1.264260000000e-15 -2.402830000000e-01 0.000000000000e+00
-1.241700000000e-15 -2.524910000000e-01 0.000000000000e+00
-1.218160000000e-15 -2.646350000000e-01 0.000000000000e+00
0.000000000000e+00 0.000000000000e+00 0.000000000000e+00
6.389930000000e-04 -4.464450000000e-04 0.000000000000e+00
1.313750000000e-03 -1.786920000000e-03 0.000000000000e+00
1.998280000000e-03 -3.899520000000e-03 0.000000000000e+00
2.669680000000e-03 -6.706950000000e-03 0.000000000000e+00
3.315600000000e-03 -1.016740000000e-02 0.000000000000e+00
3.935230000000e-03 -1.425490000000e-02 0.000000000000e+00
4.529800000000e-03 -1.894620000000e-02 0.000000000000e+00
5.100280000000e-03 -2.421840000000e-02 0.000000000000e+00
5.647190000000e-03 -3.004880000000e-02 0.000000000000e+00
6.170730000000e-03 -3.641430000000e-02 0.000000000000e+00
6.670990000000e-03 -4.329160000000e-02 0.000000000000e+00
7.147970000000e-03 -5.065750000000e-02 0.000000000000e+00
7.601690000000e-03 -5.848880000000e-02 0.000000000000e+00
8.032150000000e-03 -6.676220000000e-02 0.000000000000e+00
8.439330000000e-03 -7.545440000000e-02 0.000000000000e+00
8.823250000000e-03 -8.454220000000e-02 0.000000000000e+00
9.183900000000e-03 -9.400220000000e-02 0.000000000000e+00
9.521290000000e-03 -1.038110000000e-01 0.000000000000e+00
9.835400000000e-03 -1.139460000000e-01 0.000000000000e+00
1.012630000000e-02 -1.243830000000e-01 0.000000000000e+00
1.039380000000e-02 -1.351000000000e-01 0.000000000000e+00
1.063820000000e-02 -1.460720000000e-01 0.000000000000e+00
1.085920000000e-02 -1.572780000000e-01 0.000000000000e+00
1.105700000000e-02 -1.686920000000e-01 0.000000000000e+00
1.123140000000e-02 -1.802930000000e-01 0.000000000000e+00
1.138220000000e-02 -1.920570000000e-01 0.000000000000e+00
1.150880000000e-02 -2.039610000000e-01 0.000000000000e+00
1.160990000000e-02 -2.159840000000e-01 0.000000000000e+00
1.168370000000e-02 -2.281010000000e-01 0.000000000000e+00
1.172950000000e-02 -2.402880000000e-01 0.000000000000e+00
1.175290000000e-02 -2.525050000000e-01 0.000000000000e+00
1.177020000000e-02 -2.646760000000e-01 0.000000000000e+00
0.000000000000e+00 0.000000000000e+00 0.000000000000e+00
1.302960000000e-03 -5.735290000000e-04 0.000000000000e+00
2.677050000000e-03 -2.006880000000e-03 0.000000000000e+00
4.062710000000e-03 -4.152210000000e-03 0.000000000000e+00
5.401670000000e-03 -6.956330000000e-03 0.000000000000e+00
6.688510000000e-03 -1.040680000000e-02 0.000000000000e+00
7.924810000000e-03 -1.448370000000e-02 0.000000000000e+00
9.112620000000e-03 -1.916510000000e-02 0.000000000000e+00
1.025310000000e-02 -2.442810000000e-02 0.000000000000e+00
1.134680000000e-02 -3.024960000000e-02 0.000000000000e+00
1.239380000000e-02 -3.660630000000e-02 0.000000000000e+00
1.339430000000e-02 -4.347480000000e-02 0.000000000000e+00
1.434830000000e-02 -5.083210000000e-02 0.000000000000e+00
1.525570000000e-02 -5.865460000000e-02 0.000000000000e+00
1.611660000000e-02 -6.691930000000e-02 0.000000000000e+00
1.693100000000e-02 -7.560280000000e-02 0.000000000000e+00
1.769890000000e-02 -8.468180000000e-02 0.000000000000e+00
1.842020000000e-02 -9.413310000000e-02 0.000000000000e+00
1.909490000000e-02 -1.039330000000e-01 0.000000000000e+00
1.972320000000e-02 -1.140600000000e-01 0.000000000000e+00
2.030490000000e-02 -1.244880000000e-01 0.000000000000e+00
2.084000000000e-02 -1.351960000000e-01 0.000000000000e+00
2.132870000000e-02 -1.461600000000e-01 0.000000000000e+00
2.177080000000e-02 -1.573560000000e-01 0.000000000000e+00
2.216630000000e-02 -1.687620000000e-01 0.000000000000e+00
2.251530000000e-02 -1.803540000000e-01 0.000000000000e+00
2.281740000000e-02 -1.921080000000e-01 0.000000000000e+00
2.307210000000e-02 -2.040030000000e-01 0.000000000000e+00
2.327790000000e-02 -2.160140000000e-01 0.000000000000e+00
2.343230000000e-02 -2.281200000000e-01 0.000000000000e+00
2.353200000000e-02 -2.403020000000e-01 0.000000000000e+00
2.358220000000e-02 -2.525400000000e-01 0.000000000000e+00
2.361450000000e-02 -2.647890000000e-01 0.000000000000e+00
0.000000000000e+00 0.000000000000e+00 0.000000000000e+00
2.024490000000e-03 -8.493270000000e-04 0.000000000000e+00
4.188110000000e-03 -2.428150000000e-03 0.000000000000e+00
6.259280000000e-03 -4.575860000000e-03 0.000000000000e+00
8.251480000000e-03 -7.368310000000e-03 0.000000000000e+00
1.017120000000e-02 -1.080230000000e-02 0.000000000000e+00
1.202080000000e-02 -1.486310000000e-02 0.000000000000e+00
1.380060000000e-02 -1.952910000000e-02 0.000000000000e+00
1.551070000000e-02 -2.477730000000e-02 0.000000000000e+00
1.715100000000e-02 -3.058410000000e-02 0.000000000000e+00
1.872160000000e-02 -3.692620000000e-02 0.000000000000e+00
2.022230000000e-02 -4.378020000000e-02 0.000000000000e+00
2.165330000000e-02 -5.112290000000e-02 0.000000000000e+00
2.301450000000e-02 -5.893090000000e-02 0.000000000000e+00
2.430580000000e-02 -6.718100000000e-02 0.000000000000e+00
2.552740000000e-02 -7.585000000000e-02 0.000000000000e+00
2.667920000000e-02 -8.491450000000e-02 0.000000000000e+00
2.776110000000e-02 -9.435130000000e-02 0.000000000000e+00
2.877330000000e-02 -1.041370000000e-01 0.000000000000e+00
2.971560000000e-02 -1.142490000000e-01 0.000000000000e+00
3.058820000000e-02 -1.246630000000e-01 0.000000000000e+00
3.139090000000e-02 -1.353560000000e-01 0.000000000000e+00
3.212380000000e-02 -1.463050000000e-01 0.000000000000e+00
3.278700000000e-02 -1.574870000000e-01 0.000000000000e+00
3.338030000000e-02 -1.688780000000e-01 0.000000000000e+00
3.390390000000e-02 -1.804550000000e-01 0.000000000000e+00
3.435770000000e-02 -1.921950000000e-01 0.000000000000e+00
3.474190000000e-02 -2.040740000000e-01 0.000000000000e+00
3.505640000000e-02 -2.160690000000e-01 0.000000000000e+00
3.530070000000e-02 -2.281570000000e-01 0.000000000000e+00
3.547290000000e-02 -2.403250000000e-01 0.000000000000e+00
3.556790000000e-02 -2.525750000000e-01 0.000000000000e+00
3.561070000000e-02 -2.649400000000e-01 0.000000000000e+00
0.000000000000e+00 0.000000000000e+00 0.000000000000e+00
3.130470000000e-03 -1.483390000000e-03 0.000000000000e+00
5.924880000000e-03 -3.023330000000e-03 0.000000000000e+00
8.627480000000e-03 -5.165580000000e-03 0.000000000000e+00
1.125880000000e-02 -7.937890000000e-03 0.000000000000e+00
1.380930000000e-02 -1.135210000000e-02 0.000000000000e+00
1.627260000000e-02 -1.539260000000e-02 0.000000000000e+00
1.864500000000e-02 -2.003820000000e-02 0.000000000000e+00
2.092500000000e-02 -2.526590000000e-02 0.000000000000e+00
2.311220000000e-02 -3.105240000000e-02 0.000000000000e+00
2.520640000000e-02 -3.737410000000e-02 0.000000000000e+00
2.720740000000e-02 -4.420780000000e-02 0.000000000000e+00
2.911540000000e-02 -5.153010000000e-02 0.000000000000e+00
3.093030000000e-02 -5.931780000000e-02 0.000000000000e+00
3.265210000000e-02 -6.754750000000e-02 0.000000000000e+00
3.428090000000e-02 -7.619610000000e-02 0.000000000000e+00
3.581650000000e-02 -8.524020000000e-02 0.000000000000e+00
3.725910000000e-02 -9.465670000000e-02 0.000000000000e+00
3.860870000000e-02 -1.044220000000e-01 0.000000000000e+00
3.986510000000e-02 -1.145130000000e-01 0.000000000000e+00
4.102850000000e-02 -1.249070000000e-01 0.000000000000e+00
4.209880000000e-02 -1.355800000000e-01 0.000000000000e+00
4.307610000000e-02 -1.465090000000e-01 0.000000000000e+00
4.396020000000e-02 -1.576700000000e-01 0.000000000000e+00
4.475130000000e-02 -1.690410000000e-01 0.000000000000e+00
4.544930000000e-02 -1.805980000000e-01 0.000000000000e+00
4.605440000000e-02 -1.923170000000e-01 0.000000000000e+00
4.656720000000e-02 -2.041760000000e-01 0.000000000000e+00
4.698940000000e-02 -2.161500000000e-01 0.000000000000e+00
4.732530000000e-02 -2.282180000000e-01 0.000000000000e+00
4.758340000000e-02 -2.403680000000e-01 0.000000000000e+00
4.777390000000e-02 -2.526070000000e-01 0.000000000000e+00
4.786270000000e-02 -2.650270000000e-01 0.000000000000e+00
SCALARS displacement_magnitude double 1
LOOKUP_TABLE default
0.000000000000e+00
3.464143229285e-03
6.651671015865e-03
1.005567640126e-02
1.377572775181e-02
1.787643535216e-02
2.239932243440e-02
2.737088753110e-02
3.280581240893e-02
3.870949928118e-02
4.507977320007e-02
5.190926887946e-02
5.918663466670e-02
6.689756987313e-02
7.502549160559e-02
8.355253293599e-02
9.245925247529e-02
1.017257656039e-01
1.113309741253e-01
1.212536736227e-01
1.314727974193e-01
1.419656485261e-01
1.527103057171e-01
1.636836219175e-01
1.748643432284e-01
1.862290967451e-01
1.977544847743e-01
2.094190609564e-01
2.211986125914e-01
2.330732493104e-01
2.450325598355e-01
2.570848925359e-01
2.693142194172e-01
0.000000000000e+00
2.195430735193e-03
4.841092624047e-03
7.753520546049e-03
1.106250037046e-02
1.483721654253e-02
1.911573629892e-02
2.391322452473e-02
2.923177055500e-02
3.506485382559e-02
4.140099700490e-02
4.822496583026e-02
5.551951283378e-02
6.326545807200e-02
7.144269504043e-02
8.003043577765e-02
8.900703355853e-02
9.835063032284e-02
1.080389631656e-01
1.180502049315e-01
1.283608255982e-01
1.389483189492e-01
1.497901583931e-01
1.608637390402e-01
1.721453551859e-01
1.836123129319e-01
1.952418233225e-01
2.070101376542e-01
2.188944127701e-01
2.308717307716e-01
2.429288625491e-01
2.550670620355e-01
2.673225122478e-01
0.000000000000e+00
1.423601164456e-03
3.345768078768e-03
5.809170373487e-03
8.807301848909e-03
1.237083878563e-02
1.651000239934e-02
2.122123703450e-02
2.649260517994e-02
3.230771069575e-02
3.864747699566e-02
4.549137838679e-02
5.281833112945e-02
6.060609279313e-02
6.883267761790e-02
7.747542919429e-02
8.651160796361e-02
9.591842515205e-02
1.056725304656e-01
1.157527028550e-01
1.261330690502e-01
1.367927776456e-01
1.477080195646e-01
1.588548975280e-01
1.702115081294e-01
1.817539657066e-01
1.934583092213e-01
2.053035455305e-01
2.172646055491e-01
2.293203154613e-01
2.414514572911e-01
2.536386637657e-01
2.658399126001e-01
0.000000000000e+00
7.795031700218e-04
2.217886865667e-03
4.381709619407e-03
7.218751249690e-03
1.069435487161e-02
1.478811039866e-02
1.948018435436e-02
2.474962130293e-02
3.057484482931e-02
3.693344220653e-02
4.380256542875e-02
5.115931763981e-02
5.898072071699e-02
6.724363748685e-02
7.592488900360e-02
8.500137246776e-02
9.444976243512e-02
1.042467202566e-01
1.143696900807e-01
1.247945216774e-01
1.354992290695e-01
1.464588695957e-01
1.576524389556e-01
1.690539798792e-01
1.806424927722e-01
1.923939856800e-01
2.042854424535e-01
2.162958114112e-01
2.284000329393e-01
2.405741135581e-01
2.527783726576e-01
2.649375824304e-01