# vtk DataFile Version 3.0
STAPpp Q4 result
ASCII
DATASET UNSTRUCTURED_GRID
POINTS 15 double
0.000000000000e+00 0.000000000000e+00 0.000000000000e+00
2.750000000000e-01 2.089690000000e-17 0.000000000000e+00
5.500000000000e-01 1.504080000000e-17 0.000000000000e+00
8.250000000000e-01 9.068670000000e-18 0.000000000000e+00
1.100000000000e+00 -1.101380000000e-18 0.000000000000e+00
0.000000000000e+00 4.875000000000e-01 0.000000000000e+00
2.750000000000e-01 4.875000000000e-01 0.000000000000e+00
5.500000000000e-01 4.875000000000e-01 0.000000000000e+00
8.250000000000e-01 4.875000000000e-01 0.000000000000e+00
1.100000000000e+00 4.875000000000e-01 0.000000000000e+00
0.000000000000e+00 9.750000000000e-01 0.000000000000e+00
2.750000000000e-01 9.750000000000e-01 0.000000000000e+00
5.500000000000e-01 9.750000000000e-01 0.000000000000e+00
8.250000000000e-01 9.750000000000e-01 0.000000000000e+00
1.100000000000e+00 9.750000000000e-01 0.000000000000e+00
CELLS 8 40
4 0 1 6 5
4 1 2 7 6
4 2 3 8 7
4 3 4 9 8
4 5 6 11 10
4 6 7 12 11
4 7 8 13 12
4 8 9 14 13
CELL_TYPES 8
9
9
9
9
9
9
9
9
POINT_DATA 15
VECTORS displacement double
0.000000000000e+00 0.000000000000e+00 0.000000000000e+00
2.500000000000e-04 2.089690000000e-19 0.000000000000e+00
5.000000000000e-04 1.504080000000e-19 0.000000000000e+00
7.500000000000e-04 9.068670000000e-20 0.000000000000e+00
1.000000000000e-03 -1.101380000000e-20 0.000000000000e+00
0.000000000000e+00 -1.250000000000e-04 0.000000000000e+00
2.500000000000e-04 -1.250000000000e-04 0.000000000000e+00
5.000000000000e-04 -1.250000000000e-04 0.000000000000e+00
7.500000000000e-04 -1.250000000000e-04 0.000000000000e+00
1.000000000000e-03 -1.250000000000e-04 0.000000000000e+00
0.000000000000e+00 -2.500000000000e-04 0.000000000000e+00
2.500000000000e-04 -2.500000000000e-04 0.000000000000e+00
5.000000000000e-04 -2.500000000000e-04 0.000000000000e+00
7.500000000000e-04 -2.500000000000e-04 0.000000000000e+00
1.000000000000e-03 -2.500000000000e-04 0.000000000000e+00
SCALARS displacement_magnitude double 1
LOOKUP_TABLE default
0.000000000000e+00
2.500000000000e-04
5.000000000000e-04
7.500000000000e-04
1.000000000000e-03
1.250000000000e-04
2.795084971875e-04
5.153882032022e-04
7.603453162873e-04
1.007782218537e-03
2.500000000000e-04
3.535533905933e-04
5.590169943749e-04
7.905694150421e-04
1.030776406404e-03
CELL_DATA 8
SCALARS sigma_x double 1
LOOKUP_TABLE default
1.000000000000e+00
1.000000000000e+00
1.000000000000e+00
1.000000000000e+00
1.000000000000e+00
1.000000000000e+00
1.000000000000e+00
1.000000000000e+00
SCALARS sigma_y double 1
LOOKUP_TABLE default
2.401042000000e-16
7.877510000000e-17
2.962447500000e-17
-2.652786250000e-16
2.962445000000e-17
-7.503727500000e-17
-6.867655000000e-17
-2.699045000000e-16
SCALARS tau_xy double 1
LOOKUP_TABLE default
1.706317750000e-16
1.382355750000e-16
1.355250000000e-17
8.391625000000e-18
-5.989143500000e-17
-1.626312500000e-17
-5.421020000000e-17
-1.131908250000e-16
SCALARS von_mises_plane_stress double 1
LOOKUP_TABLE default
1.000000000000e+00
1.000000000000e+00
1.000000000000e+00
1.000000000000e+00
1.000000000000e+00
1.000000000000e+00
1.000000000000e+00
1.000000000000e+00
