# vtk DataFile Version 3.0
STAPpp Q4 result
ASCII
DATASET UNSTRUCTURED_GRID
POINTS 363 double
1.066735200000e+00 0.000000000000e+00 0.000000000000e+00
1.246081036900e+00 0.000000000000e+00 0.000000000000e+00
1.523707055500e+00 0.000000000000e+00 0.000000000000e+00
1.857677411900e+00 0.000000000000e+00 0.000000000000e+00
2.235081218000e+00 0.000000000000e+00 0.000000000000e+00
2.648560795800e+00 0.000000000000e+00 0.000000000000e+00
3.093175270800e+00 0.000000000000e+00 0.000000000000e+00
3.565339433700e+00 0.000000000000e+00 0.000000000000e+00
4.062311272100e+00 0.000000000000e+00 0.000000000000e+00
4.581885272800e+00 0.000000000000e+00 0.000000000000e+00
5.122147600000e+00 0.000000000000e+00 0.000000000000e+00
1.065446456210e+00 4.784511032700e-02 0.000000000000e+00
1.244813298100e+00 5.721558468800e-02 0.000000000000e+00
1.522507467200e+00 7.113610789300e-02 0.000000000000e+00
1.856578570700e+00 8.751137692500e-02 0.000000000000e+00
2.234101700100e+00 1.058269073800e-01 0.000000000000e+00
2.647711585000e+00 1.258007006000e-01 0.000000000000e+00
3.092463130300e+00 1.472410519700e-01 0.000000000000e+00
3.564767716100e+00 1.700122654800e-01 0.000000000000e+00
4.061880967000e+00 1.940256894500e-01 0.000000000000e+00
4.581594969400e+00 2.192494020500e-01 0.000000000000e+00
5.121999600000e+00 2.457532516500e-01 0.000000000000e+00
1.061583926670e+00 9.557500033000e-02 0.000000000000e+00
1.241013653900e+00 1.143661884200e-01 0.000000000000e+00
1.518912473600e+00 1.422904580600e-01 0.000000000000e+00
1.853285777700e+00 1.751459539500e-01 0.000000000000e+00
2.231167006000e+00 2.118979197200e-01 0.000000000000e+00
2.645167915900e+00 2.519788416500e-01 0.000000000000e+00
3.090329954400e+00 2.950032194600e-01 0.000000000000e+00
3.563055472200e+00 3.406981988800e-01 0.000000000000e+00
4.060592206800e+00 3.888848967600e-01 0.000000000000e+00
4.580726844200e+00 4.394958039400e-01 0.000000000000e+00
5.121558400000e+00 4.926572647900e-01 0.000000000000e+00
1.055156509960e+00 1.430747744600e-01 0.000000000000e+00
1.234692614400e+00 1.713881907900e-01 0.000000000000e+00
1.512933782900e+00 2.134843851000e-01 0.000000000000e+00
1.847811019300e+00 2.630320498100e-01 0.000000000000e+00
2.226288309400e+00 3.184644433000e-01 0.000000000000e+00
2.640939674800e+00 3.789215144100e-01 0.000000000000e+00
3.086784677100e+00 4.438197541900e-01 0.000000000000e+00
3.560210626200e+00 5.127462263800e-01 0.000000000000e+00
4.058452253800e+00 5.854286144100e-01 0.000000000000e+00
4.579288650300e+00 6.617565213800e-01 0.000000000000e+00
5.120834400000e+00 7.418871896900e-01 0.000000000000e+00
1.046180080400e+00 1.902300620200e-01 0.000000000000e+00
1.225867407300e+00 2.282207228300e-01 0.000000000000e+00
1.504590821200e+00 2.847455331300e-01 0.000000000000e+00
1.840173920600e+00 3.513083933000e-01 0.000000000000e+00
2.219484883300e+00 4.257927537200e-01 0.000000000000e+00
2.635044457900e+00 5.070354566700e-01 0.000000000000e+00
3.081842709900e+00 5.942486525100e-01 0.000000000000e+00
3.556246109500e+00 6.868748647500e-01 0.000000000000e+00
4.055473072900e+00 7.845434716800e-01 0.000000000000e+00
4.577293506800e+00 8.870903381600e-01 0.000000000000e+00
5.119843800000e+00 9.946678783000e-01 0.000000000000e+00
1.034676053190e+00 2.369273599000e-01 0.000000000000e+00
1.214562344800e+00 2.848071415300e-01 0.000000000000e+00
1.493910502000e+00 3.561112928200e-01 0.000000000000e+00
1.830401917800e+00 4.401298059300e-01 0.000000000000e+00
2.210782275400e+00 5.341721295300e-01 0.000000000000e+00
2.627505950100e+00 6.367578415200e-01 0.000000000000e+00
3.075524524700e+00 7.468862373100e-01 0.000000000000e+00
3.551179847400e+00 8.638492965700e-01 0.000000000000e+00
4.051670922100e+00 9.871713571500e-01 0.000000000000e+00
4.574758894000e+00 1.116620384900e+00 0.000000000000e+00
5.118608000000e+00 1.252301093400e+00 0.000000000000e+00
1.020672535730e+00 2.830543572500e-01 0.000000000000e+00
1.200808577100e+00 3.410967101700e-01 0.000000000000e+00
1.480927182700e+00 4.276326014800e-01 0.000000000000e+00
1.818530018500e+00 5.296734750000e-01 0.000000000000e+00
2.200214073400e+00 6.439238645200e-01 0.000000000000e+00
2.618353895400e+00 7.685682067100e-01 0.000000000000e+00
3.067856629200e+00 9.023822877700e-01 0.000000000000e+00
3.545034540300e+00 1.044499735600e+00 0.000000000000e+00
4.047066140100e+00 1.194331332600e+00 0.000000000000e+00
4.571706846700e+00 1.351559757900e+00 0.000000000000e+00
5.117153000000e+00 1.516195760000e+00 0.000000000000e+00
1.004203065180e+00 3.285001133900e-01 0.000000000000e+00
1.184644032700e+00 3.970464288500e-01 0.000000000000e+00
1.465682609500e+00 4.993782252900e-01 0.000000000000e+00
1.804599952200e+00 6.201461477100e-01 0.000000000000e+00
2.187819660500e+00 7.554115480600e-01 0.000000000000e+00
2.607624459400e+00 9.030022602300e-01 0.000000000000e+00
3.058870336400e+00 1.061457410000e+00 0.000000000000e+00
3.537836840200e+00 1.229742782100e+00 0.000000000000e+00
4.041683129600e+00 1.407144834900e+00 0.000000000000e+00
4.568162546300e+00 1.593241083300e+00 0.000000000000e+00
5.115507800000e+00 1.787902620600e+00 0.000000000000e+00
9.853079325100e-01 3.731554523700e-01 0.000000000000e+00
1.166113545800e+00 4.526231723200e-01 0.000000000000e+00
1.448226049900e+00 5.714398876000e-01 0.000000000000e+00
1.788660708900e+00 7.117924519000e-01 0.000000000000e+00
2.173645361900e+00 8.690532031800e-01 0.000000000000e+00
2.595359182500e+00 1.040667980000e+00 0.000000000000e+00
3.048601326000e+00 1.224923579300e+00 0.000000000000e+00
3.529617521600e+00 1.420606367100e+00 0.000000000000e+00
4.035548938100e+00 1.626865631000e+00 0.000000000000e+00
4.564153910500e+00 1.843151679200e+00 0.000000000000e+00
5.113701800000e+00 2.069154993900e+00 0.000000000000e+00
9.640328931200e-01 4.169131134300e-01 0.000000000000e+00
1.145268970700e+00 5.078063114600e-01 0.000000000000e+00
1.428612613900e+00 6.439382075100e-01 0.000000000000e+00
1.770767667200e+00 8.049049176200e-01 0.000000000000e+00
2.157742780900e+00 9.853358603300e-01 0.000000000000e+00
2.581604125800e+00 1.182265114900e+00 0.000000000000e+00
3.037089600400e+00 1.393708904100e+00 0.000000000000e+00
3.520410446900e+00 1.618260211900e+00 0.000000000000e+00
4.028693634500e+00 1.854916009300e+00 0.000000000000e+00
4.559709581300e+00 2.102976036200e+00 0.000000000000e+00
5.111764400000e+00 2.361917919500e+00 0.000000000000e+00
9.404298643500e-01 4.596681768300e-01 0.000000000000e+00
1.122168284600e+00 5.625906951800e-01 0.000000000000e+00
1.406904762700e+00 7.170299404800e-01 0.000000000000e+00
1.750981912600e+00 8.998362798700e-01 0.000000000000e+00
2.140169326700e+00 1.104833406700e+00 0.000000000000e+00
2.566410409300e+00 1.328609348600e+00 0.000000000000e+00
3.024378433600e+00 1.568888197900e+00 0.000000000000e+00
3.510251527800e+00 1.824053287100e+00 0.000000000000e+00
4.021148682100e+00 2.092931545300e+00 0.000000000000e+00
4.554858712000e+00 2.374648662400e+00 0.000000000000e+00
5.109720600000e+00 2.668448539800e+00 0.000000000000e+00
9.145566100000e-01 5.013182041900e-01 0.000000000000e+00
1.096876076400e+00 6.169905990400e-01 0.000000000000e+00
1.383169806500e+00 7.909171466100e-01 0.000000000000e+00
1.729370144100e+00 9.970147980000e-01 0.000000000000e+00
2.120987131900e+00 1.228229153200e+00 0.000000000000e+00
2.549832540900e+00 1.480662392300e+00 0.000000000000e+00
3.010513713400e+00 1.751721504600e+00 0.000000000000e+00
3.499179280900e+00 2.039561034200e+00 0.000000000000e+00
4.012946109100e+00 2.342817675300e+00 0.000000000000e+00
4.549627551100e+00 2.660420386600e+00 0.000000000000e+00
5.107589400000e+00 2.991372008400e+00 0.000000000000e+00
8.864774123000e-01 5.417637330200e-01 0.000000000000e+00
1.069463025100e+00 6.710444393700e-01 0.000000000000e+00
1.357481391200e+00 8.658584694100e-01 0.000000000000e+00
1.706004771500e+00 1.096963869900e+00 0.000000000000e+00
2.100262962000e+00 1.356344547900e+00 0.000000000000e+00
2.531927939200e+00 1.639570642600e+00 0.000000000000e+00
2.995543277600e+00 1.943703271100e+00 0.000000000000e+00
3.487232178900e+00 2.266645859900e+00 0.000000000000e+00
4.004116874700e+00 2.606822137700e+00 0.000000000000e+00
4.544038626000e+00 2.962943542800e+00 0.000000000000e+00
5.105380200000e+00 3.333778129600e+00 0.000000000000e+00
8.562629314800e-01 5.809088044900e-01 0.000000000000e+00
1.040004765020e+00 7.248206990400e-01 0.000000000000e+00
1.329916774000e+00 9.421838392900e-01 0.000000000000e+00
1.680963003000e+00 1.200327437200e+00 0.000000000000e+00
2.078066915600e+00 1.490176559100e+00 0.000000000000e+00
2.512756848000e+00 1.806715425800e+00 0.000000000000e+00
2.979516044700e+00 2.146626445100e+00 0.000000000000e+00
3.474448596700e+00 2.507536032900e+00 0.000000000000e+00
3.994688833000e+00 2.887629372800e+00 0.000000000000e+00
4.538105924000e+00 3.285382673200e+00 0.000000000000e+00
5.103089600000e+00 3.699347131400e+00 0.000000000000e+00
8.239914533600e-01 6.186621241600e-01 0.000000000000e+00
1.008580940830e+00 7.784253722100e-01 0.000000000000e+00
1.300558888100e+00 1.020313807100e+00 0.000000000000e+00
1.654327122300e+00 1.307903946700e+00 0.000000000000e+00
2.054472116200e+00 1.630947137900e+00 0.000000000000e+00
2.492379643500e+00 1.983779364800e+00 0.000000000000e+00
2.962480336800e+00 2.362667390400e+00 0.000000000000e+00
3.460864953400e+00 2.764930128300e+00 0.000000000000e+00
3.984684093500e+00 3.188485769500e+00 0.000000000000e+00
4.531832672100e+00 3.631561025500e+00 0.000000000000e+00
5.100697600000e+00 4.092515734100e+00 0.000000000000e+00
7.897507253500e-01 6.549393148500e-01 0.000000000000e+00
9.752720504000e-01 8.320109228100e-01 0.000000000000e+00
1.269495397600e+00 1.100785903100e+00 0.000000000000e+00
1.626184957400e+00 1.420691924400e+00 0.000000000000e+00
2.029552795900e+00 1.780169236700e+00 0.000000000000e+00
2.470857535000e+00 2.172835616400e+00 0.000000000000e+00
2.944483999200e+00 2.594500245300e+00 0.000000000000e+00
3.446512849400e+00 3.042137858800e+00 0.000000000000e+00
[...]
POINT_DATA 363
VECTORS displacement double
3.336760000000e-03 0.000000000000e+00 0.000000000000e+00
3.370380000000e-03 0.000000000000e+00 0.000000000000e+00
3.412340000000e-03 0.000000000000e+00 0.000000000000e+00
3.515840000000e-03 0.000000000000e+00 0.000000000000e+00
3.702890000000e-03 0.000000000000e+00 0.000000000000e+00
3.969630000000e-03 0.000000000000e+00 0.000000000000e+00
4.304880000000e-03 0.000000000000e+00 0.000000000000e+00
4.697170000000e-03 0.000000000000e+00 0.000000000000e+00
5.136090000000e-03 0.000000000000e+00 0.000000000000e+00
5.611080000000e-03 0.000000000000e+00 0.000000000000e+00
6.107380000000e-03 0.000000000000e+00 0.000000000000e+00
3.332550000000e-03 -6.112820000000e-05 0.000000000000e+00
3.364530000000e-03 -3.161980000000e-05 0.000000000000e+00
3.405730000000e-03 -1.568160000000e-05 0.000000000000e+00
3.509270000000e-03 -1.242460000000e-05 0.000000000000e+00
3.696660000000e-03 -1.476830000000e-05 0.000000000000e+00
3.963770000000e-03 -1.892390000000e-05 0.000000000000e+00
4.299280000000e-03 -2.288590000000e-05 0.000000000000e+00
4.691600000000e-03 -2.519360000000e-05 0.000000000000e+00
5.130240000000e-03 -2.405380000000e-05 0.000000000000e+00
5.604550000000e-03 -1.616240000000e-05 0.000000000000e+00
6.099980000000e-03 5.950140000000e-06 0.000000000000e+00
3.319960000000e-03 -1.221070000000e-04 0.000000000000e+00
3.347020000000e-03 -6.349670000000e-05 0.000000000000e+00
3.385960000000e-03 -3.198020000000e-05 0.000000000000e+00
3.489630000000e-03 -2.563960000000e-05 0.000000000000e+00
3.678060000000e-03 -3.038520000000e-05 0.000000000000e+00
3.946300000000e-03 -3.869630000000e-05 0.000000000000e+00
4.282570000000e-03 -4.658940000000e-05 0.000000000000e+00
4.674980000000e-03 -5.116140000000e-05 0.000000000000e+00
5.112760000000e-03 -4.886350000000e-05 0.000000000000e+00
5.585080000000e-03 -3.323820000000e-05 0.000000000000e+00
6.077920000000e-03 1.001240000000e-05 0.000000000000e+00
3.299000000000e-03 -1.827850000000e-04 0.000000000000e+00
3.317960000000e-03 -9.588500000000e-05 0.000000000000e+00
3.353230000000e-03 -4.950240000000e-05 0.000000000000e+00
3.457170000000e-03 -4.041840000000e-05 0.000000000000e+00
3.647340000000e-03 -4.767980000000e-05 0.000000000000e+00
3.917450000000e-03 -6.014520000000e-05 0.000000000000e+00
4.254980000000e-03 -7.190830000000e-05 0.000000000000e+00
4.647540000000e-03 -7.865920000000e-05 0.000000000000e+00
5.083900000000e-03 -7.517010000000e-05 0.000000000000e+00
5.553000000000e-03 -5.212940000000e-05 0.000000000000e+00
6.041720000000e-03 1.036260000000e-05 0.000000000000e+00
3.269740000000e-03 -2.430130000000e-04 0.000000000000e+00
3.277520000000e-03 -1.290340000000e-04 0.000000000000e+00
3.307870000000e-03 -6.883320000000e-05 0.000000000000e+00
3.412290000000e-03 -5.750120000000e-05 0.000000000000e+00
3.604950000000e-03 -6.744280000000e-05 0.000000000000e+00
3.877660000000e-03 -8.405920000000e-05 0.000000000000e+00
4.216920000000e-03 -9.960130000000e-05 0.000000000000e+00
4.609650000000e-03 -1.084070000000e-04 0.000000000000e+00
5.044070000000e-03 -1.036860000000e-04 0.000000000000e+00
5.508870000000e-03 -7.371510000000e-05 0.000000000000e+00
5.992190000000e-03 5.302070000000e-06 0.000000000000e+00
3.232240000000e-03 -3.026410000000e-04 0.000000000000e+00
3.225950000000e-03 -1.631860000000e-04 0.000000000000e+00
3.250330000000e-03 -9.052510000000e-05 0.000000000000e+00
3.355550000000e-03 -7.757880000000e-05 0.000000000000e+00
3.551450000000e-03 -9.040820000000e-05 0.000000000000e+00
3.827500000000e-03 -1.111680000000e-04 0.000000000000e+00
4.168910000000e-03 -1.303700000000e-04 0.000000000000e+00
4.561820000000e-03 -1.410710000000e-04 0.000000000000e+00
4.993820000000e-03 -1.350820000000e-04 0.000000000000e+00
5.453430000000e-03 -9.884010000000e-05 0.000000000000e+00
5.930400000000e-03 -6.685380000000e-06 0.000000000000e+00
3.186610000000e-03 -3.615160000000e-04 0.000000000000e+00
3.163570000000e-03 -1.985710000000e-04 0.000000000000e+00
3.181180000000e-03 -1.150870000000e-04 0.000000000000e+00
3.287660000000e-03 -1.012780000000e-04 0.000000000000e+00
3.487600000000e-03 -1.172370000000e-04 0.000000000000e+00
3.767670000000e-03 -1.421280000000e-04 0.000000000000e+00
4.111630000000e-03 -1.648430000000e-04 0.000000000000e+00
4.504690000000e-03 -1.772540000000e-04 0.000000000000e+00
4.933830000000e-03 -1.699770000000e-04 0.000000000000e+00
5.387610000000e-03 -1.283040000000e-04 0.000000000000e+00
5.857650000000e-03 -2.688290000000e-05 0.000000000000e+00
3.132950000000e-03 -4.194870000000e-04 0.000000000000e+00
3.090770000000e-03 -2.354040000000e-04 0.000000000000e+00
3.101110000000e-03 -1.429750000000e-04 0.000000000000e+00
3.209440000000e-03 -1.291460000000e-04 0.000000000000e+00
3.414250000000e-03 -1.485040000000e-04 0.000000000000e+00
3.699020000000e-03 -1.775040000000e-04 0.000000000000e+00
4.045860000000e-03 -2.035630000000e-04 0.000000000000e+00
4.438990000000e-03 -2.174780000000e-04 0.000000000000e+00
4.864910000000e-03 -2.089330000000e-04 0.000000000000e+00
5.312460000000e-03 -1.628520000000e-04 0.000000000000e+00
5.775390000000e-03 -5.629930000000e-05 0.000000000000e+00
3.071420000000e-03 -4.763990000000e-04 0.000000000000e+00
3.008020000000e-03 -2.738810000000e-04 0.000000000000e+00
3.010940000000e-03 -1.745770000000e-04 0.000000000000e+00
3.121850000000e-03 -1.616410000000e-04 0.000000000000e+00
3.332400000000e-03 -1.846840000000e-04 0.000000000000e+00
3.622500000000e-03 -2.177610000000e-04 0.000000000000e+00
3.972460000000e-03 -2.469750000000e-04 0.000000000000e+00
4.365550000000e-03 -2.621840000000e-04 0.000000000000e+00
4.787930000000e-03 -2.524480000000e-04 0.000000000000e+00
5.229130000000e-03 -2.031620000000e-04 0.000000000000e+00
5.685090000000e-03 -9.564090000000e-05 0.000000000000e+00
3.002180000000e-03 -5.320990000000e-04 0.000000000000e+00
2.915880000000e-03 -3.141700000000e-04 0.000000000000e+00
2.911540000000e-03 -2.102060000000e-04 0.000000000000e+00
3.025950000000e-03 -1.991230000000e-04 0.000000000000e+00
3.243120000000e-03 -2.261420000000e-04 0.000000000000e+00
3.539120000000e-03 -2.632560000000e-04 0.000000000000e+00
3.892370000000e-03 -2.954210000000e-04 0.000000000000e+00
4.285250000000e-03 -3.117240000000e-04 0.000000000000e+00
4.703840000000e-03 -3.009580000000e-04 0.000000000000e+00
5.138770000000e-03 -2.498420000000e-04 0.000000000000e+00
5.588220000000e-03 -1.452980000000e-04 0.000000000000e+00
2.925430000000e-03 -5.864280000000e-04 0.000000000000e+00
2.814960000000e-03 -3.564100000000e-04 0.000000000000e+00
2.803910000000e-03 -2.500950000000e-04 0.000000000000e+00
2.922870000000e-03 -2.418460000000e-04 0.000000000000e+00
3.147580000000e-03 -2.731300000000e-04 0.000000000000e+00
3.449980000000e-03 -3.142270000000e-04 0.000000000000e+00
3.806560000000e-03 -3.491390000000e-04 0.000000000000e+00
4.198970000000e-03 -3.663660000000e-04 0.000000000000e+00
4.613590000000e-03 -3.548450000000e-04 0.000000000000e+00
5.042520000000e-03 -3.034190000000e-04 0.000000000000e+00
5.486030000000e-03 -2.053570000000e-04 0.000000000000e+00
2.841400000000e-03 -6.392270000000e-04 0.000000000000e+00
2.705950000000e-03 -4.006970000000e-04 0.000000000000e+00
2.689060000000e-03 -2.943860000000e-04 0.000000000000e+00
2.813810000000e-03 -2.899560000000e-04 0.000000000000e+00
3.047000000000e-03 -3.257790000000e-04 0.000000000000e+00
3.356190000000e-03 -3.707980000000e-04 0.000000000000e+00
3.716000000000e-03 -4.082640000000e-04 0.000000000000e+00
4.107620000000e-03 -4.263030000000e-04 0.000000000000e+00
4.518090000000e-03 -4.144440000000e-04 0.000000000000e+00
4.941340000000e-03 -3.643460000000e-04 0.000000000000e+00
5.379470000000e-03 -2.756330000000e-04 0.000000000000e+00
2.750390000000e-03 -6.903250000000e-04 0.000000000000e+00
2.589600000000e-03 -4.470800000000e-04 0.000000000000e+00
2.568090000000e-03 -3.431370000000e-04 0.000000000000e+00
2.700050000000e-03 -3.434880000000e-04 0.000000000000e+00
2.942650000000e-03 -3.840990000000e-04 0.000000000000e+00
3.258850000000e-03 -4.329820000000e-04 0.000000000000e+00
3.621630000000e-03 -4.728420000000e-04 0.000000000000e+00
4.012010000000e-03 -4.916700000000e-04 0.000000000000e+00
4.418130000000e-03 -4.800610000000e-04 0.000000000000e+00
4.835970000000e-03 -4.330080000000e-04 0.000000000000e+00
5.269010000000e-03 -3.557530000000e-04 0.000000000000e+00
2.652770000000e-03 -7.395250000000e-04 0.000000000000e+00
2.466670000000e-03 -4.955630000000e-04 0.000000000000e+00
2.442060000000e-03 -3.963280000000e-04 0.000000000000e+00
2.582910000000e-03 -4.023680000000e-04 0.000000000000e+00
2.835790000000e-03 -4.479800000000e-04 0.000000000000e+00
3.159050000000e-03 -5.006920000000e-04 0.000000000000e+00
3.524320000000e-03 -5.428490000000e-04 0.000000000000e+00
3.912850000000e-03 -5.625660000000e-04 0.000000000000e+00
4.314280000000e-03 -5.520010000000e-04 0.000000000000e+00
4.726690000000e-03 -5.097510000000e-04 0.000000000000e+00
5.154480000000e-03 -4.452800000000e-04 0.000000000000e+00
2.549050000000e-03 -7.865580000000e-04 0.000000000000e+00
2.337890000000e-03 -5.461240000000e-04 0.000000000000e+00
2.312100000000e-03 -4.538730000000e-04 0.000000000000e+00
2.463770000000e-03 -4.663980000000e-04 0.000000000000e+00
2.727660000000e-03 -5.171950000000e-04 0.000000000000e+00
3.057740000000e-03 -5.737650000000e-04 0.000000000000e+00
3.424790000000e-03 -6.182170000000e-04 0.000000000000e+00
3.810660000000e-03 -6.390890000000e-04 0.000000000000e+00
4.206760000000e-03 -6.305990000000e-04 0.000000000000e+00
4.613210000000e-03 -5.949330000000e-04 0.000000000000e+00
5.034880000000e-03 -5.439110000000e-04 0.000000000000e+00
2.439980000000e-03 -8.309820000000e-04 0.000000000000e+00
2.203810000000e-03 -5.987900000000e-04 0.000000000000e+00
2.179370000000e-03 -5.156170000000e-04 0.000000000000e+00
2.344100000000e-03 -5.352420000000e-04 0.000000000000e+00
2.619390000000e-03 -5.914330000000e-04 0.000000000000e+00
2.955770000000e-03 -6.520020000000e-04 0.000000000000e+00
3.323620000000e-03 -6.988710000000e-04 0.000000000000e+00
3.705630000000e-03 -7.213780000000e-04 0.000000000000e+00
4.095240000000e-03 -7.162850000000e-04 0.000000000000e+00
4.494470000000e-03 -6.890380000000e-04 0.000000000000e+00
4.908250000000e-03 -6.517510000000e-04 0.000000000000e+00
2.326720000000e-03 -8.719270000000e-04 0.000000000000e+00
2.064560000000e-03 -6.538420000000e-04 0.000000000000e+00
2.045270000000e-03 -5.812610000000e-04 0.000000000000e+00
2.225340000000e-03 -6.084210000000e-04 0.000000000000e+00
2.511940000000e-03 -6.703520000000e-04 0.000000000000e+00
2.853830000000e-03 -7.352050000000e-04 0.000000000000e+00
3.221060000000e-03 -7.847760000000e-04 0.000000000000e+00
3.597470000000e-03 -8.096760000000e-04 0.000000000000e+00
3.978610000000e-03 -8.096760000000e-04 0.000000000000e+00
4.368380000000e-03 -7.928490000000e-04 0.000000000000e+00
4.771610000000e-03 -7.696450000000e-04 0.000000000000e+00
2.213940000000e-03 -9.153780000000e-04 0.000000000000e+00
1.939150000000e-03 -7.247340000000e-04 0.000000000000e+00
1.898390000000e-03 -6.529590000000e-04 0.000000000000e+00
2.049380000000e-03 -6.724380000000e-04 0.000000000000e+00
2.302380000000e-03 -7.300980000000e-04 0.000000000000e+00
2.608000000000e-03 -7.959930000000e-04 0.000000000000e+00
2.937760000000e-03 -8.529050000000e-04 0.000000000000e+00
3.275180000000e-03 -8.912040000000e-04 0.000000000000e+00
3.613590000000e-03 -9.089680000000e-04 0.000000000000e+00
3.954780000000e-03 -9.112930000000e-04 0.000000000000e+00
4.304070000000e-03 -9.060200000000e-04 0.000000000000e+00
2.093900000000e-03 -9.581630000000e-04 0.000000000000e+00
1.812950000000e-03 -7.939640000000e-04 0.000000000000e+00
1.754190000000e-03 -7.262170000000e-04 0.000000000000e+00
1.879700000000e-03 -7.395200000000e-04 0.000000000000e+00
2.102920000000e-03 -7.923370000000e-04 0.000000000000e+00
2.376190000000e-03 -8.579120000000e-04 0.000000000000e+00
2.672390000000e-03 -9.198630000000e-04 0.000000000000e+00
2.975100000000e-03 -9.683850000000e-04 0.000000000000e+00
3.276000000000e-03 -1.000160000000e-03 0.000000000000e+00
3.574580000000e-03 -1.018280000000e-03 0.000000000000e+00
3.876230000000e-03 -1.029080000000e-03 0.000000000000e+00
1.967780000000e-03 -9.993030000000e-04 0.000000000000e+00
1.685790000000e-03 -8.615540000000e-04 0.000000000000e+00
1.612760000000e-03 -7.998460000000e-04 0.000000000000e+00
1.715980000000e-03 -8.085370000000e-04 0.000000000000e+00
1.912560000000e-03 -8.564090000000e-04 0.000000000000e+00
2.156680000000e-03 -9.206430000000e-04 0.000000000000e+00
2.422530000000e-03 -9.859300000000e-04 0.000000000000e+00
2.694030000000e-03 -1.042380000000e-03 0.000000000000e+00
2.961600000000e-03 -1.085480000000e-03 0.000000000000e+00
3.222410000000e-03 -1.116620000000e-03 0.000000000000e+00
3.481040000000e-03 -1.141150000000e-03 0.000000000000e+00
1.836300000000e-03 -1.038240000000e-03 0.000000000000e+00
1.557770000000e-03 -9.271000000000e-04 0.000000000000e+00
1.474120000000e-03 -8.728780000000e-04 0.000000000000e+00
1.557970000000e-03 -8.783060000000e-04 0.000000000000e+00
1.730560000000e-03 -9.214490000000e-04 0.000000000000e+00
1.948170000000e-03 -9.836510000000e-04 0.000000000000e+00
2.186310000000e-03 -1.050990000000e-03 0.000000000000e+00
2.429430000000e-03 -1.113660000000e-03 0.000000000000e+00
2.667120000000e-03 -1.166180000000e-03 0.000000000000e+00
2.894230000000e-03 -1.208330000000e-03 0.000000000000e+00
3.113400000000e-03 -1.244570000000e-03 0.000000000000e+00
1.699990000000e-03 -1.074630000000e-03 0.000000000000e+00
1.429080000000e-03 -9.900220000000e-04 0.000000000000e+00
1.338290000000e-03 -9.443930000000e-04 0.000000000000e+00
1.405450000000e-03 -9.476740000000e-04 0.000000000000e+00
1.556350000000e-03 -9.864700000000e-04 0.000000000000e+00
1.749630000000e-03 -1.046230000000e-03 0.000000000000e+00
1.962230000000e-03 -1.114650000000e-03 0.000000000000e+00
2.179280000000e-03 -1.182250000000e-03 0.000000000000e+00
2.389930000000e-03 -1.242820000000e-03 0.000000000000e+00
2.586880000000e-03 -1.294640000000e-03 0.000000000000e+00
2.769650000000e-03 -1.341140000000e-03 0.000000000000e+00
1.559300000000e-03 -1.108260000000e-03 0.000000000000e+00
1.299890000000e-03 -1.049700000000e-03 0.000000000000e+00
1.205280000000e-03 -1.013470000000e-03 0.000000000000e+00
1.258210000000e-03 -1.015530000000e-03 0.000000000000e+00
1.389410000000e-03 -1.050420000000e-03 0.000000000000e+00
1.560200000000e-03 -1.107550000000e-03 0.000000000000e+00
1.749030000000e-03 -1.176350000000e-03 0.000000000000e+00
1.941910000000e-03 -1.247870000000e-03 0.000000000000e+00
2.127850000000e-03 -1.315470000000e-03 0.000000000000e+00
2.297750000000e-03 -1.376070000000e-03 0.000000000000e+00
2.447190000000e-03 -1.431910000000e-03 0.000000000000e+00
1.414640000000e-03 -1.138990000000e-03 0.000000000000e+00
1.170360000000e-03 -1.105520000000e-03 0.000000000000e+00
1.075070000000e-03 -1.079190000000e-03 0.000000000000e+00
1.116000000000e-03 -1.080780000000e-03 0.000000000000e+00
1.229280000000e-03 -1.112240000000e-03 0.000000000000e+00
1.379130000000e-03 -1.166720000000e-03 0.000000000000e+00
1.545660000000e-03 -1.235400000000e-03 0.000000000000e+00
1.715880000000e-03 -1.310030000000e-03 0.000000000000e+00
1.879030000000e-03 -1.383840000000e-03 0.000000000000e+00
2.024620000000e-03 -1.452660000000e-03 0.000000000000e+00
2.144000000000e-03 -1.517300000000e-03 0.000000000000e+00
1.266430000000e-03 -1.166710000000e-03 0.000000000000e+00
1.040590000000e-03 -1.156930000000e-03 0.000000000000e+00
9.476010000000e-04 -1.140670000000e-03 0.000000000000e+00
9.785550000000e-04 -1.142380000000e-03 0.000000000000e+00
1.075460000000e-03 -1.170890000000e-03 0.000000000000e+00
1.205670000000e-03 -1.222800000000e-03 0.000000000000e+00
1.351110000000e-03 -1.291020000000e-03 0.000000000000e+00
1.499920000000e-03 -1.368140000000e-03 0.000000000000e+00
1.641830000000e-03 -1.447460000000e-03 0.000000000000e+00
1.765530000000e-03 -1.524020000000e-03 0.000000000000e+00
1.858360000000e-03 -1.597150000000e-03 0.000000000000e+00
1.115040000000e-03 -1.191340000000e-03 0.000000000000e+00
9.106620000000e-04 -1.203430000000e-03 0.000000000000e+00
8.227320000000e-04 -1.197050000000e-03 0.000000000000e+00
8.455580000000e-04 -1.199360000000e-03 0.000000000000e+00
9.274390000000e-04 -1.225350000000e-03 0.000000000000e+00
1.039120000000e-03 -1.274860000000e-03 0.000000000000e+00
1.164470000000e-03 -1.342430000000e-03 0.000000000000e+00
1.292860000000e-03 -1.421500000000e-03 0.000000000000e+00
1.414780000000e-03 -1.505700000000e-03 0.000000000000e+00
1.518680000000e-03 -1.589570000000e-03 0.000000000000e+00
1.588700000000e-03 -1.670880000000e-03 0.000000000000e+00
9.608940000000e-04 -1.212800000000e-03 0.000000000000e+00
7.806420000000e-04 -1.244580000000e-03 0.000000000000e+00
7.002820000000e-04 -1.247580000000e-03 0.000000000000e+00
7.166290000000e-04 -1.250780000000e-03 0.000000000000e+00
7.846520000000e-04 -1.274680000000e-03 0.000000000000e+00
8.787430000000e-04 -1.322030000000e-03 0.000000000000e+00
9.848120000000e-04 -1.388860000000e-03 0.000000000000e+00
1.093580000000e-03 -1.469460000000e-03 0.000000000000e+00
1.196510000000e-03 -1.557900000000e-03 0.000000000000e+00
1.282410000000e-03 -1.648530000000e-03 0.000000000000e+00
1.333420000000e-03 -1.737660000000e-03 0.000000000000e+00
8.043720000000e-04 -1.231060000000e-03 0.000000000000e+00
6.505670000000e-04 -1.280010000000e-03 0.000000000000e+00
5.800110000000e-04 -1.291550000000e-03 0.000000000000e+00
5.913260000000e-04 -1.295800000000e-03 0.000000000000e+00
6.464880000000e-04 -1.318010000000e-03 0.000000000000e+00
7.237610000000e-04 -1.363470000000e-03 0.000000000000e+00
8.112140000000e-04 -1.429550000000e-03 0.000000000000e+00
9.009900000000e-04 -1.511330000000e-03 0.000000000000e+00
9.857210000000e-04 -1.603400000000e-03 0.000000000000e+00
1.055110000000e-03 -1.700130000000e-03 0.000000000000e+00
1.090830000000e-03 -1.796490000000e-03 0.000000000000e+00
6.458720000000e-04 -1.246050000000e-03 0.000000000000e+00
5.204640000000e-04 -1.309410000000e-03 0.000000000000e+00
4.616320000000e-04 -1.328360000000e-03 0.000000000000e+00
4.691510000000e-04 -1.333690000000e-03 0.000000000000e+00
5.122800000000e-04 -1.354570000000e-03 0.000000000000e+00
5.733650000000e-04 -1.398460000000e-03 0.000000000000e+00
6.427280000000e-04 -1.463840000000e-03 0.000000000000e+00
7.140060000000e-04 -1.546510000000e-03 0.000000000000e+00
7.811360000000e-04 -1.641570000000e-03 0.000000000000e+00
8.352380000000e-04 -1.743580000000e-03 0.000000000000e+00
8.591220000000e-04 -1.846350000000e-03 0.000000000000e+00
4.857890000000e-04 -1.257750000000e-03 0.000000000000e+00
3.903500000000e-04 -1.332540000000e-03 0.000000000000e+00
3.448140000000e-04 -1.357520000000e-03 0.000000000000e+00
3.495490000000e-04 -1.363820000000e-03 0.000000000000e+00
3.813100000000e-04 -1.383710000000e-03 0.000000000000e+00
4.266990000000e-04 -1.426360000000e-03 0.000000000000e+00
4.783800000000e-04 -1.491150000000e-03 0.000000000000e+00
5.315300000000e-04 -1.574470000000e-03 0.000000000000e+00
5.815110000000e-04 -1.671880000000e-03 0.000000000000e+00
6.212770000000e-04 -1.778180000000e-03 0.000000000000e+00
6.363310000000e-04 -1.886280000000e-03 0.000000000000e+00
3.245190000000e-04 -1.266130000000e-03 0.000000000000e+00
2.602320000000e-04 -1.349190000000e-03 0.000000000000e+00
2.291970000000e-04 -1.378620000000e-03 0.000000000000e+00
2.319180000000e-04 -1.385710000000e-03 0.000000000000e+00
2.528130000000e-04 -1.404910000000e-03 0.000000000000e+00
2.828710000000e-04 -1.446660000000e-03 0.000000000000e+00
3.171640000000e-04 -1.511000000000e-03 0.000000000000e+00
3.524550000000e-04 -1.594760000000e-03 0.000000000000e+00
3.856060000000e-04 -1.693860000000e-03 0.000000000000e+00
4.117350000000e-04 -1.803340000000e-03 0.000000000000e+00
4.203650000000e-04 -1.915440000000e-03 0.000000000000e+00
1.624580000000e-04 -1.271160000000e-03 0.000000000000e+00
1.301160000000e-04 -1.359240000000e-03 0.000000000000e+00
1.143930000000e-04 -1.391400000000e-03 0.000000000000e+00